! Touchstone file from project Coils
! Exported from HFSS 2015.0.0
! Variables:
!  dist = 5.8mm
# GHZ S MA R 50.000000
! Modal data exported
! Port[1] = p1:1
! Port[2] = p2:1
0.01             0.969821018075171 156.773563527107 0.191631276058733 -146.510768513499 0.191631276058737 -146.510768513497 0.962271271036469 89.2693633396087 
! Gamma         !               0                0                0                0                
! Port Impedance50               0                50               0                

0.01001          0.969800294832601 156.752098625123 0.191720031723743 -146.549693992752 0.191720031723747 -146.54969399275 0.962266638644273 89.2123785788465 
! Gamma         !               0                0                0                0                
! Port Impedance50               0                50               0                

0.01002          0.969779597485856 156.730636120797 0.191808635351476 -146.58859017986 0.19180863535148 -146.588590179858 0.9622620231454  89.1554515746821 
! Gamma         !               0                0                0                0                
! Port Impedance50               0                50               0                

0.01003          0.969758926026969 156.709176011017 0.191897087170843 -146.627457104366 0.191897087170846 -146.627457104364 0.962257424516957 89.09858226626   
! Gamma         !               0                0                0                0                
! Port Impedance50               0                50               0                

0.01004          0.969738280447849 156.687718292682 0.191985387410532 -146.666294795812 0.191985387410535 -146.666294795811 0.962252842736003 89.0417705927359 
! Gamma         !               0                0                0                0                
! Port Impedance50               0                50               0                

0.01005          0.969717660740277 156.666262962698 0.192073536299015 -146.70510328374 0.192073536299018 -146.705103283739 0.962248277779545 88.9850164932772 
! Gamma         !               0                0                0                0                
! Port Impedance50               0                50               0                

0.01006          0.969697066895913 156.64481001798  0.192161534064541 -146.743882597689 0.192161534064544 -146.743882597688 0.962243729624546 88.9283199070633 
! Gamma         !               0                0                0                0                
! Port Impedance50               0                50               0                

0.01007          0.96967649890629 156.623359455451 0.192249380935139 -146.782632767198 0.192249380935142 -146.782632767197 0.962239198247915 88.8716807732858 
! Gamma         !               0                0                0                0                
! Port Impedance50               0                50               0                

0.01008          0.969655956762824 156.601911272044 0.192337077138614 -146.821353821804 0.192337077138616 -146.821353821802 0.962234683626517 88.815099031149  
! Gamma         !               0                0                0                0                
! Port Impedance50               0                50               0                

0.01009          0.969635440456804 156.580465464701 0.192424622902549 -146.860045791042 0.192424622902551 -146.860045791041 0.962230185737169 88.7585746198702 
! Gamma         !               0                0                0                0                
! Port Impedance50               0                50               0                

0.0101           0.969614949979401 156.55902203037  0.192512018454303 -146.898708704447 0.192512018454305 -146.898708704445 0.962225704556642 88.7021074786798 
! Gamma         !               0                0                0                0                
! Port Impedance50               0                50               0                

0.01011          0.969594485321663 156.537580966012 0.192599264021011 -146.937342591549 0.192599264021013 -146.937342591547 0.962221240061658 88.645697546822  
! Gamma         !               0                0                0                0                
! Port Impedance50               0                50               0                

0.01012          0.969574046474522 156.516142268594 0.192686359829583 -146.975947481878 0.192686359829584 -146.975947481877 0.962216792228896 88.5893447635545 
! Gamma         !               0                0                0                0                
! Port Impedance50               0                50               0                

0.01013          0.969553633428787 156.494705935091 0.192773306106703 -147.014523404961 0.192773306106705 -147.01452340496 0.962212361034988 88.5330490681496 
! Gamma         !               0                0                0                0                
! Port Impedance50               0                50               0                

0.01014          0.969533246175151 156.473271962488 0.19286010307883 -147.053070390323 0.192860103078831 -147.053070390322 0.962207946456524 88.4768103998938 
! Gamma         !               0                0                0                0                
! Port Impedance50               0                50               0                

0.01015          0.96951288470419 156.45184034778  0.192946750972192 -147.091588467485 0.192946750972193 -147.091588467484 0.962203548470045 88.4206286980889 
! Gamma         !               0                0                0                0                
! Port Impedance50               0                50               0                

0.01016          0.96949254900636 156.430411087967 0.193033250012795 -147.130077665966 0.193033250012796 -147.130077665965 0.962199167052055 88.3645039020512 
! Gamma         !               0                0                0                0                
! Port Impedance50               0                50               0                

0.01017          0.969472239072005 156.408984180061 0.193119600426412 -147.168538015282 0.193119600426412 -147.168538015281 0.962194802179009 88.308435951113  
! Gamma         !               0                0                0                0                
! Port Impedance50               0                50               0                

0.01018          0.969451954891349 156.387559621082 0.193205802438589 -147.206969544945 0.193205802438589 -147.206969544944 0.96219045382732 88.2524247846219 
! Gamma         !               0                0                0                0                
! Port Impedance50               0                50               0                

0.01019          0.969431696454505 156.366137408058 0.193291856274642 -147.245372284463 0.193291856274641 -147.245372284462 0.962186121973362 88.1964703419418 
! Gamma         !               0                0                0                0                
! Port Impedance50               0                50               0                

0.0102           0.969411463751471 156.344717538025 0.193377762159656 -147.283746263343 0.193377762159656 -147.283746263342 0.962181806593466 88.140572562453  
! Gamma         !               0                0                0                0                
! Port Impedance50               0                50               0                

0.01021          0.969391256772129 156.32330000803  0.193463520318487 -147.322091511085 0.193463520318486 -147.322091511084 0.962177507663919 88.0847313855522 
! Gamma         !               0                0                0                0                
! Port Impedance50               0                50               0                

0.01022          0.969371075506252 156.301884815125 0.193549130975757 -147.360408057187 0.193549130975757 -147.360408057186 0.96217322516097 88.0289467506533 
! Gamma         !               0                0                0                0                
! Port Impedance50               0                50               0                

0.01023          0.969350919943498 156.280471956375 0.193634594355859 -147.398695931143 0.193634594355858 -147.398695931142 0.962168959060827 87.9732185971874 
! Gamma         !               0                0                0                0                
! Port Impedance50               0                50               0                

0.01024          0.969330790073415 156.259061428851 0.193719910682949 -147.436955162441 0.193719910682947 -147.43695516244 0.962164709339659 87.9175468646029 
! Gamma         !               0                0                0                0                
! Port Impedance50               0                50               0                

0.01025          0.969310685885439 156.237653229632 0.193805080180952 -147.475185780565 0.193805080180951 -147.475185780564 0.962160475973594 87.8619314923662 
! Gamma         !               0                0                0                0                
! Port Impedance50               0                50               0                

0.01026          0.969290607368899 156.216247355807 0.193890103073561 -147.513387814996 0.193890103073559 -147.513387814995 0.962156258938722 87.8063724199619 
! Gamma         !               0                0                0                0                
! Port Impedance50               0                50               0                

0.01027          0.969270554513011 156.194843804474 0.193974979584231 -147.551561295209 0.193974979584229 -147.551561295208 0.962152058211095 87.750869586893  
! Gamma         !               0                0                0                0                
! Port Impedance50               0                50               0                

0.01028          0.969250527306883 156.173442572738 0.194059709936182 -147.589706250673 0.19405970993618 -147.589706250672 0.962147873766726 87.695422932681  
! Gamma         !               0                0                0                0                
! Port Impedance50               0                50               0                

0.01029          0.969230525739517 156.152043657715 0.194144294352402 -147.627822710853 0.1941442943524  -147.627822710852 0.962143705581591 87.6400323968666 
! Gamma         !               0                0                0                0                
! Port Impedance50               0                50               0                

0.0103           0.969210549799806 156.130647056526 0.194228733055639 -147.665910705209 0.194228733055636 -147.665910705209 0.962139553631631 87.5846979190096 
! Gamma         !               0                0                0                0                
! Port Impedance50               0                50               0                

0.01031          0.969190599476537 156.109252766304 0.194313026268405 -147.703970263195 0.194313026268402 -147.703970263195 0.962135417892748 87.5294194386896 
! Gamma         !               0                0                0                0                
! Port Impedance50               0                50               0                

0.01032          0.969170674758388 156.087860784189 0.194397174212974 -147.742001414259 0.194397174212971 -147.742001414259 0.962131298340807 87.4741968955056 
! Gamma         !               0                0                0                0                
! Port Impedance50               0                50               0                

0.01033          0.969150775633937 156.06647110733  0.194481177111385 -147.780004187844 0.194481177111382 -147.780004187843 0.962127194951641 87.4190302290772 
! Gamma         !               0                0                0                0                
! Port Impedance50               0                50               0                

0.01034          0.969130902091653 156.045083732884 0.194565035185435 -147.817978613386 0.194565035185432 -147.817978613385 0.962123107701046 87.3639193790441 
! Gamma         !               0                0                0                0                
! Port Impedance50               0                50               0                

0.01035          0.969111054119903 156.023698658017 0.194648748656684 -147.855924720315 0.19464874865668 -147.855924720314 0.962119036564782 87.3088642850667 
! Gamma         !               0                0                0                0                
! Port Impedance50               0                50               0                

0.01036          0.969091231706948 156.002315879903 0.19473231774645 -147.893842538056 0.194732317746446 -147.893842538055 0.962114981518577 87.2538648868264 
! Gamma         !               0                0                0                0                
! Port Impedance50               0                50               0                

0.01037          0.969071434840949 155.980935395725 0.194815742675814 -147.931732096026 0.19481574267581 -147.931732096025 0.962110942538124 87.1989211240259 
! Gamma         !               0                0                0                0                
! Port Impedance50               0                50               0                

0.01038          0.969051663509963 155.959557202675 0.194899023665615 -147.969593423636 0.19489902366561 -147.969593423635 0.962106919599082 87.1440329363891 
! Gamma         !               0                0                0                0                
! Port Impedance50               0                50               0                

0.01039          0.969031917701946 155.938181297953 0.194982160936449 -148.00742655029 0.194982160936445 -148.00742655029 0.962102912677081 87.0892002636618 
! Gamma         !               0                0                0                0                
! Port Impedance50               0                50               0                

0.0104           0.969012197404753 155.916807678767 0.195065154708673 -148.045231505387 0.195065154708668 -148.045231505386 0.962098921747712 87.0344230456121 
! Gamma         !               0                0                0                0                
! Port Impedance50               0                50               0                

0.01041          0.96899250260614 155.895436342335 0.195148005202401 -148.083008318315 0.195148005202396 -148.083008318314 0.96209494678654 86.9797012220299 
! Gamma         !               0                0                0                0                
! Port Impedance50               0                50               0                

0.01042          0.968972833293761 155.874067285881 0.195230712637503 -148.120757018457 0.195230712637497 -148.120757018457 0.962090987769097 86.925034732728  
! Gamma         !               0                0                0                0                
! Port Impedance50               0                50               0                

0.01043          0.968953189455172 155.85270050664  0.195313277233606 -148.158477635191 0.195313277233601 -148.15847763519 0.96208704467088 86.8704235175418 
! Gamma         !               0                0                0                0                
! Port Impedance50               0                50               0                

0.01044          0.968933571077832 155.831336001854 0.195395699210096 -148.196170197882 0.195395699210091 -148.196170197882 0.962083117467361 86.8158675163301 
! Gamma         !               0                0                0                0                
! Port Impedance50               0                50               0                

0.01045          0.9689139781491  155.809973768774 0.195477978786112 -148.233834735893 0.195477978786106 -148.233834735893 0.962079206133978 86.7613666689746 
! Gamma         !               0                0                0                0                
! Port Impedance50               0                50               0                

0.01046          0.968894410656239 155.788613804659 0.195560116180549 -148.271471278574 0.195560116180543 -148.271471278574 0.96207531064614 86.706920915381  
! Gamma         !               0                0                0                0                
! Port Impedance50               0                50               0                

0.01047          0.968874868586416 155.767256106777 0.195642111612057 -148.309079855272 0.19564211161205 -148.309079855272 0.962071430979228 86.6525301954787 
! Gamma         !               0                0                0                0                
! Port Impedance50               0                50               0                

0.01048          0.9688553519267  155.745900672405 0.195723965299039 -148.346660495321 0.195723965299033 -148.346660495321 0.962067567108594 86.598194449221  
! Gamma         !               0                0                0                0                
! Port Impedance50               0                50               0                

0.01049          0.968835860664067 155.724547498827 0.195805677459656 -148.384213228051 0.195805677459649 -148.384213228051 0.962063719009558 86.5439136165859 
! Gamma         !               0                0                0                0                
! Port Impedance50               0                50               0                

0.0105           0.968816394785397 155.703196583336 0.195887248311818 -148.42173808278 0.195887248311811 -148.42173808278 0.962059886657416 86.4896876375759 
! Gamma         !               0                0                0                0                
! Port Impedance50               0                50               0                

0.01051          0.968796954277477 155.681847923233 0.195968678073189 -148.45923508882 0.195968678073182 -148.45923508882 0.962056070027435 86.4355164522182 
! Gamma         !               0                0                0                0                
! Port Impedance50               0                50               0                

0.01052          0.968777539126999 155.660501515829 0.196049966961188 -148.496704275473 0.196049966961181 -148.496704275473 0.962052269094854 86.3814000005654 
! Gamma         !               0                0                0                0                
! Port Impedance50               0                50               0                

0.01053          0.968758149320565 155.639157358441 0.196131115192983 -148.534145672032 0.196131115192976 -148.534145672032 0.962048483834887 86.3273382226952 
! Gamma         !               0                0                0                0                
! Port Impedance50               0                50               0                

0.01054          0.968738784844679 155.617815448396 0.196212122985496 -148.571559307782 0.196212122985489 -148.571559307782 0.962044714222718 86.2733310587112 
! Gamma         !               0                0                0                0                
! Port Impedance50               0                50               0                

0.01055          0.96871944568576 155.59647578303  0.196292990555399 -148.608945211998 0.196292990555392 -148.608945211998 0.96204096023351 86.2193784487425 
! Gamma         !               0                0                0                0                
! Port Impedance50               0                50               0                

0.01056          0.968700131830131 155.575138359685 0.196373718119116 -148.646303413947 0.196373718119108 -148.646303413947 0.962037221842397 86.1654803329447 
! Gamma         !               0                0                0                0                
! Port Impedance50               0                50               0                

0.01057          0.968680843264029 155.553803175714 0.196454305892818 -148.683633942883 0.19645430589281 -148.683633942883 0.962033499024488 86.1116366514994 
! Gamma         !               0                0                0                0                
! Port Impedance50               0                50               0                

0.01058          0.968661579973598 155.532470228476 0.196534754092432 -148.720936828055 0.196534754092423 -148.720936828055 0.962029791754868 86.0578473446149 
! Gamma         !               0                0                0                0                
! Port Impedance50               0                50               0                

0.01059          0.968642341944892 155.511139515339 0.196615062933628 -148.7582120987  0.196615062933619 -148.7582120987  0.9620261000086  86.0041123525264 
! Gamma         !               0                0                0                0                
! Port Impedance50               0                50               0                

0.0106           0.968623129163878 155.489811033681 0.19669523263183 -148.795459784044 0.196695232631821 -148.795459784045 0.962022423760716 85.9504316154961 
! Gamma         !               0                0                0                0                
! Port Impedance50               0                50               0                

0.01061          0.968603941616435 155.468484780886 0.196775263402209 -148.832679913306 0.1967752634022  -148.832679913306 0.962018762986234 85.8968050738134 
! Gamma         !               0                0                0                0                
! Port Impedance50               0                50               0                

0.01062          0.968584779288354 155.447160754348 0.196855155459683 -148.869872515692 0.196855155459675 -148.869872515693 0.962015117660141 85.8432326677953 
! Gamma         !               0                0                0                0                
! Port Impedance50               0                50               0                

0.01063          0.968565642165339 155.425838951467 0.196934909018922 -148.9070376204  0.196934909018913 -148.9070376204  0.962011487757406 85.7897143377867 
! Gamma         !               0                0                0                0                
! Port Impedance50               0                50               0                

0.01064          0.968546530233009 155.404519369655 0.197014524294339 -148.944175256616 0.19701452429433 -148.944175256616 0.962007873252972 85.7362500241602 
! Gamma         !               0                0                0                0                
! Port Impedance50               0                50               0                

0.01065          0.968527443476894 155.383202006329 0.197094001500097 -148.981285453515 0.197094001500087 -148.981285453515 0.962004274121763 85.682839667317  
! Gamma         !               0                0                0                0                
! Port Impedance50               0                50               0                

0.01066          0.968508381882441 155.361886858916 0.197173340850105 -149.018368240263 0.197173340850095 -149.018368240264 0.962000690338682 85.6294832076863 
! Gamma         !               0                0                0                0                
! Port Impedance50               0                50               0                

0.01067          0.968489345435014 155.340573924849 0.197252542558018 -149.055423646016 0.197252542558008 -149.055423646016 0.961997121878607 85.5761805857263 
! Gamma         !               0                0                0                0                
! Port Impedance50               0                50               0                

0.01068          0.968470334119888 155.319263201573 0.197331606837239 -149.092451699915 0.197331606837229 -149.092451699915 0.961993568716399 85.5229317419241 
! Gamma         !               0                0                0                0                
! Port Impedance50               0                50               0                

0.01069          0.968451347922261 155.297954686537 0.197410533900915 -149.129452431094 0.197410533900904 -149.129452431095 0.961990030826896 85.4697366167958 
! Gamma         !               0                0                0                0                
! Port Impedance50               0                50               0                

0.0107           0.968432386827241 155.276648377202 0.197489323961938 -149.166425868675 0.197489323961928 -149.166425868675 0.961986508184918 85.4165951508868 
! Gamma         !               0                0                0                0                
! Port Impedance50               0                50               0                

0.01071          0.96841345081986 155.255344271035 0.197567977232948 -149.203372041766 0.197567977232937 -149.203372041767 0.961983000765265 85.3635072847722 
! Gamma         !               0                0                0                0                
! Port Impedance50               0                50               0                

0.01072          0.968394539885064 155.234042365511 0.197646493926325 -149.240290979467 0.197646493926314 -149.240290979468 0.961979508542716 85.3104729590568 
! Gamma         !               0                0                0                0                
! Port Impedance50               0                50               0                

0.01073          0.968375654007719 155.212742658115 0.197724874254198 -149.277182710865 0.197724874254187 -149.277182710865 0.961976031492033 85.2574921143756 
! Gamma         !               0                0                0                0                
! Port Impedance50               0                50               0                

0.01074          0.968356793172612 155.191445146338 0.197803118428438 -149.314047265034 0.197803118428427 -149.314047265034 0.96197256958796 85.2045646913935 
! Gamma         !               0                0                0                0                
! Port Impedance50               0                50               0                

0.01075          0.968337957364446 155.170149827681 0.19788122666066 -149.350884671038 0.197881226660648 -149.350884671039 0.961969122805222 85.1516906308062 
! Gamma         !               0                0                0                0                
! Port Impedance50               0                50               0                

0.01076          0.968319146567848 155.148856699651 0.197959199162221 -149.38769495793 0.197959199162209 -149.38769495793 0.961965691118524 85.0988698733397 
! Gamma         !               0                0                0                0                
! Port Impedance50               0                50               0                

0.01077          0.968300360767365 155.127565759767 0.198037036144223 -149.424478154747 0.198037036144211 -149.424478154747 0.961962274502558 85.0461023597513 
! Gamma         !               0                0                0                0                
! Port Impedance50               0                50               0                

0.01078          0.968281599947464 155.106277005551 0.19811473781751 -149.461234290517 0.198114737817498 -149.461234290517 0.961958872931995 84.9933880308289 
! Gamma         !               0                0                0                0                
! Port Impedance50               0                50               0                

0.01079          0.968262864092536 155.084990434537 0.198192304392669 -149.497963394255 0.198192304392656 -149.497963394256 0.961955486381495 84.940726827392  
! Gamma         !               0                0                0                0                
! Port Impedance50               0                50               0                

0.0108           0.968244153186894 155.063706044266 0.198269736080027 -149.534665494964 0.198269736080015 -149.534665494964 0.961952114825694 84.8881186902914 
! Gamma         !               0                0                0                0                
! Port Impedance50               0                50               0                

0.01081          0.968225467214772 155.042423832287 0.198347033089657 -149.571340621632 0.198347033089644 -149.571340621633 0.961948758239218 84.83556356041   
! Gamma         !               0                0                0                0                
! Port Impedance50               0                50               0                

0.01082          0.968206806160332 155.021143796156 0.198424195631369 -149.607988803238 0.198424195631356 -149.607988803239 0.961945416596675 84.7830613786621 
! Gamma         !               0                0                0                0                
! Port Impedance50               0                50               0                

0.01083          0.968188170007656 154.999865933439 0.198501223914717 -149.644610068746 0.198501223914704 -149.644610068747 0.96194208987266 84.7306120859943 
! Gamma         !               0                0                0                0                
! Port Impedance50               0                50               0                

0.01084          0.968169558740752 154.978590241708 0.198578118148995 -149.681204447106 0.198578118148982 -149.681204447107 0.96193877804175 84.6782156233858 
! Gamma         !               0                0                0                0                
! Port Impedance50               0                50               0                

0.01085          0.968150972343556 154.957316718546 0.198654878543238 -149.717771967258 0.198654878543225 -149.717771967259 0.961935481078511 84.625871931848  
! Gamma         !               0                0                0                0                
! Port Impedance50               0                50               0                
